 Gaussian 03, Revision B.05,
 Gaussian 03:  x86-Linux-G03RevB.05  8-Nov-2003

 -----------------------------------------------------------
 # b3lyp/6-31g* freq gfprint pop=(full,nboread) symm=(loose)
 -----------------------------------------------------------

 ---------------------------------------
 InChI=1/H3N2O3/c3-1-2(4)5/h1,3H,(H,4,5)
 ---------------------------------------
 Symbolic Z-matrix:
 Charge =  0 Multiplicity = 1

                         Standard orientation:
 ---------------------------------------------------------------------
 Center     Atomic     Atomic              Coordinates (Angstroms)
 Number     Number      Type              X           Y           Z
 ---------------------------------------------------------------------
    1          8             0        0.197667   -1.778452    0.000000
    2          7             0       -0.711285   -1.077704    0.000000
    3          8             0       -0.782903    1.554716    0.000000
    4          8             0        1.207610    0.610421    0.000000
    5          7             0        0.000000    0.635778    0.000000
 ---------------------------------------------------------------------

 SCF Done:  E(RB+HF-LYP) =  -334.975596432     A.U. after   18 cycles

 The electronic state is 1-A'.
 Alpha  occ. eigenvalues --  -19.33301 -19.22364 -19.22029 -14.57287 -14.55169
 Alpha  occ. eigenvalues --   -1.29914  -1.24609  -1.09443  -0.74429  -0.65026
 Alpha  occ. eigenvalues --   -0.59063  -0.56474  -0.54089  -0.53081  -0.52526
 Alpha  occ. eigenvalues --   -0.45589  -0.34293  -0.33059  -0.26679
 Alpha virt. eigenvalues --   -0.15171  -0.06084  -0.06072   0.24850   0.27751
 Alpha virt. eigenvalues --    0.41423   0.55189   0.56469   0.58894   0.59964
 Alpha virt. eigenvalues --    0.67203   0.70450   0.70841   0.76363   0.80122

 Mulliken atomic charges:
              1
     1  O   -0.048175
     2  N    0.199415
     3  O   -0.321468
     4  O   -0.305466
     5  N    0.475694
 Sum of Mulliken charges=   0.00000

 Dipole moment (field-independent basis, Debye):
    X=    -0.5213    Y=    -1.9810    Z=     0.0000  Tot=     2.0485
 Quadrupole moment (field-independent basis, Debye-Ang):
   XX=   -28.9227   YY=   -27.1797   ZZ=   -23.9515
   XY=     0.9432   XZ=     0.0000   YZ=     0.0000

  Exact polarizability:  28.835  -1.508  44.126   0.000   0.000  11.812
 Approx polarizability:  67.838  -9.881  94.914   0.000   0.000  17.571

 Summary of Natural Population Analysis:

                                     Natural Population
             Natural    ---------------------------------------------
  Atom No    Charge        Core      Valence    Rydberg      Total
 --------------------------------------------------------------------
    O  1   -0.12897      1.99982     6.09752    0.03163     8.12897
    N  2    0.29079      1.99984     4.65931    0.05006     6.70921
    O  3   -0.31921      1.99981     6.29947    0.01993     8.31921
    O  4   -0.33061      1.99981     6.31058    0.02022     8.33061
    N  5    0.48800      1.99977     4.44524    0.06699     6.51200
 ====================================================================
 * Total *  0.00000      9.99905    27.81211    0.18883    38.00000

                     1                      2                      3
                    A"                     A'                     A'
 Frequencies --   145.5485               218.7277               294.6012
 Red. masses --    15.0104                15.5719                15.2457
 Frc consts  --     0.1874                 0.4389                 0.7796
 IR Inten    --     0.5050                 1.5897                19.0593

                     4                      5                      6
                    A"                     A'                     A'
 Frequencies --   462.5590               667.5049               808.7987
 Red. masses --    14.3650                14.8098                15.1611
 Frc consts  --     1.8109                 3.8879                 5.8433
 IR Inten    --     7.7073                15.5450                44.6772

                     7                      8                      9
                    A'                     A'                     A'
 Frequencies --  1395.4612              1762.8722              1938.7602
 Red. masses --    15.1636                14.5914                14.8697
 Frc consts  --    17.3976                26.7170                32.9307
 IR Inten    --   260.5923               312.1432               357.7486

 - Thermochemistry -
 -------------------
 Temperature   298.150 Kelvin.  Pressure   1.00000 Atm.
 Atom  1 has atomic number  8 and mass  15.99491

 Molecular mass:    75.99089 amu.
 Principal axes and moments of inertia in atomic units:
                           1         2         3
     EIGENVALUES --   145.53097 418.60865 564.13962
           X           -0.03359   0.99944   0.00000
           Y            0.99944   0.03359   0.00000
           Z            0.00000   0.00000   1.00000
 This molecule is an asymmetric top.
 Rotational symmetry number  1.
 Rotational temperatures (Kelvin)      0.59516     0.20691     0.15353
 Rotational constants (GHZ):          12.40108     4.31129     3.19910
 Zero-point vibrational energy      46025.3 (Joules/Mol)
                                   11.00032 (Kcal/Mol)
 Warning -- explicit consideration of   4 degrees of freedom as
           vibrations may cause significant error
 Vibrational temperatures:    209.41   314.70   423.86   665.52   960.39
          (Kelvin)           1163.68  2007.76  2536.38  2789.44

 Zero-point correction=                           0.017530 (Hartree/Particle)
 Thermal correction to Energy=                    0.022438
 Thermal correction to Enthalpy=                  0.023382
 Thermal correction to Gibbs Free Energy=        -0.010552
 Sum of electronic and zero-point Energies=           -334.958066
 Sum of electronic and thermal Energies=              -334.953158
 Sum of electronic and thermal Enthalpies=            -334.952214
 Sum of electronic and thermal Free Energies=         -334.986148

                     E (Thermal)             CV                S
                      KCal/Mol        Cal/Mol-Kelvin    Cal/Mol-Kelvin
 Total                   14.080             14.379             71.421
 Electronic               0.000              0.000              0.000
 Translational            0.889              2.981             38.900
 Rotational               0.889              2.981             25.045
 Vibrational             12.303              8.418              7.476
 Vibration  1             0.617              1.907              2.730
 Vibration  2             0.646              1.813              1.970
 Vibration  3             0.689              1.684              1.447
 Vibration  4             0.820              1.333              0.759

 Optimization completed.
    -- Stationary point found.
 Normal termination of Gaussian 03 at Tue Sep  9 16:40:00 2008.
