 Gaussian 03, Revision B.05,
 Gaussian 03:  x86-Linux-G03RevB.05  8-Nov-2003

 --------------------------------------------------------------------
 # b3lyp/6-31g* pop=(full,nboread) gfprint freq guess=read geom=check
 --------------------------------------------------------------------

 ---------------
 No Z-matrix found on checkpoint file.
 Cartesian coordinates read from the checkpoint file:
 ../CHK/no.chk
 Charge =  0 Multiplicity = 2

                         Standard orientation:
 ---------------------------------------------------------------------
 Center     Atomic     Atomic              Coordinates (Angstroms)
 Number     Number      Type              X           Y           Z
 ---------------------------------------------------------------------
    1          7             0        0.000000    0.000000   -0.617977
    2          8             0        0.000000    0.000000    0.540730
 ---------------------------------------------------------------------

 SCF Done:  E(UB+HF-LYP) =  -129.888156204     A.U. after    1 cycles

 Unable to determine electronic state:  partially filled degenerate orbitals.
 Alpha  occ. eigenvalues --  -19.29240 -14.47855  -1.24220  -0.68704  -0.53135
 Alpha  occ. eigenvalues --   -0.50491  -0.48206  -0.21562
 Alpha virt. eigenvalues --   -0.10501   0.31492   0.62321   0.62357   0.63635
 Alpha virt. eigenvalues --    0.65995   0.79163   0.87990   0.88925   1.32498
 Alpha virt. eigenvalues --    1.47232   1.47448   1.50763   1.50770   1.91011

  Beta  occ. eigenvalues --  -19.28232 -14.46341  -1.22038  -0.65016  -0.49474
  Beta  occ. eigenvalues --   -0.45793  -0.45792
  Beta virt. eigenvalues --   -0.08865  -0.04597   0.32974   0.63907   0.64602
  Beta virt. eigenvalues --    0.67318   0.67547   0.79868   0.89404   0.91651
  Beta virt. eigenvalues --    1.33614   1.50495   1.50498   1.51152   1.54244

 Mulliken atomic charges:
              1
     1  N    0.111868
     2  O   -0.111868
 Sum of Mulliken charges=   0.00000

 Dipole moment (field-independent basis, Debye):
    X=     0.0000    Y=     0.0000    Z=     0.0887  Tot=     0.0887
 Quadrupole moment (field-independent basis, Debye-Ang):
   XX=    -9.4409   YY=   -10.5022   ZZ=   -11.1281
   XY=     0.0000   XZ=     0.0000   YZ=     0.0000

  Exact polarizability:   5.545   0.000   5.232   0.000   0.000  12.010
 Approx polarizability:   7.807   0.000   6.321   0.000   0.000  23.411

 Summary of Natural Population Analysis:

                                     Natural Population
             Natural    ---------------------------------------------
  Atom No    Charge        Core      Valence    Rydberg      Total
 --------------------------------------------------------------------
    N  1    0.44915      0.99994     2.03029    0.02062     3.05085
    O  2    0.05085      0.99994     2.93393    0.01529     3.94915
 ====================================================================
 * Total *  0.50000      1.99988     4.96421    0.03591     7.00000

                     1
                    SG
 Frequencies --  1991.0611
 Red. masses --    14.8673
 Frc consts  --    34.7258
 IR Inten    --    31.4375

 - Thermochemistry -
 -------------------
 Temperature   298.150 Kelvin.  Pressure   1.00000 Atm.
 Atom  1 has atomic number  7 and mass  14.00307

 Molecular mass:    29.99799 amu.
 Principal axes and moments of inertia in atomic units:
                           1         2         3
     EIGENVALUES --     0.00000  35.79793  35.79793
           X            0.00000   0.00000   1.00000
           Y            0.00000   1.00000   0.00000
           Z            1.00000   0.00000   0.00000
 This molecule is a prolate symmetric top.
 Rotational symmetry number  1.
 Rotational temperature (Kelvin)      2.41952
 Rotational constant (GHZ):          50.414679
 Zero-point vibrational energy      11909.2 (Joules/Mol)
                                    2.84636 (Kcal/Mol)
 Vibrational temperatures:   2864.69
          (Kelvin)

 Zero-point correction=                           0.004536 (Hartree/Particle)
 Thermal correction to Energy=                    0.006897
 Thermal correction to Enthalpy=                  0.007841
 Thermal correction to Gibbs Free Energy=        -0.015469
 Sum of electronic and zero-point Energies=           -129.883620
 Sum of electronic and thermal Energies=              -129.881259
 Sum of electronic and thermal Enthalpies=            -129.880315
 Sum of electronic and thermal Free Energies=         -129.903626

                     E (Thermal)             CV                S
                      KCal/Mol        Cal/Mol-Kelvin    Cal/Mol-Kelvin
 Total                    4.328              4.980             49.062
 Electronic               0.000              0.000              1.377
 Translational            0.889              2.981             36.129
 Rotational               0.592              1.987             11.554
 Vibrational              2.847              0.012              0.001

 Optimization completed.
    -- Stationary point found.
 Normal termination of Gaussian 03 at Tue Sep  9 17:06:08 2008.
