 Gaussian 03, Revision B.05,
 Gaussian 03:  x86-Linux-G03RevB.05  8-Nov-2003

 --------------------------------------------------------------------
 # b3lyp/6-31g* pop=(full,nboread) gfprint freq guess=read geom=check
 --------------------------------------------------------------------

 ------------------
 No Z-matrix found on checkpoint file.
 Cartesian coordinates read from the checkpoint file:
 ../CHK/no2.chk
 Charge =  0 Multiplicity = 2

                         Standard orientation:
 ---------------------------------------------------------------------
 Center     Atomic     Atomic              Coordinates (Angstroms)
 Number     Number      Type              X           Y           Z
 ---------------------------------------------------------------------
    1          8             0        0.000000    1.106709   -0.143637
    2          7             0        0.000000    0.000000    0.328314
    3          8             0        0.000000   -1.106709   -0.143637
 ---------------------------------------------------------------------

 SCF Done:  E(UB+HF-LYP) =  -205.072206139     A.U. after    1 cycles

 The electronic state is 2-A1.
 Alpha  occ. eigenvalues --  -19.26564 -19.26563 -14.58716  -1.28184  -1.13634
 Alpha  occ. eigenvalues --   -0.67825  -0.57495  -0.57202  -0.56498  -0.38151
 Alpha  occ. eigenvalues --   -0.37744  -0.28776
 Alpha virt. eigenvalues --   -0.09029   0.21037   0.36949   0.58381   0.59070
 Alpha virt. eigenvalues --    0.59286   0.61180   0.77978   0.82018   0.87942
 Alpha virt. eigenvalues --    0.88908   0.93806   0.95244   1.27313   1.37164

  Beta  occ. eigenvalues --  -19.25673 -19.25671 -14.57653  -1.26315  -1.11483
  Beta  occ. eigenvalues --   -0.64488  -0.55405  -0.54824  -0.52978  -0.36984
  Beta  occ. eigenvalues --   -0.34101
  Beta virt. eigenvalues --   -0.14316  -0.07381   0.22363   0.39522   0.59691
  Beta virt. eigenvalues --    0.59884   0.61970   0.62072   0.78562   0.83806
  Beta virt. eigenvalues --    0.88373   0.91475   0.94466   0.96907   1.28885

 Mulliken atomic charges:
              1
     1  O   -0.240271
     2  N    0.480541
     3  O   -0.240271
 Sum of Mulliken charges=   0.00000

 Dipole moment (field-independent basis, Debye):
    X=     0.0000    Y=     0.0000    Z=     0.3218  Tot=     0.3218
 Quadrupole moment (field-independent basis, Debye-Ang):
   XX=   -14.5503   YY=   -17.5907   ZZ=   -15.2319
   XY=     0.0000   XZ=     0.0000   YZ=     0.0000

  Exact polarizability:   7.080   0.000  24.076   0.000   0.000   8.975
 Approx polarizability:   9.718   0.000  60.781   0.000   0.000  13.278

 Summary of Natural Population Analysis:

                                     Natural Population
             Natural    ---------------------------------------------
  Atom No    Charge        Core      Valence    Rydberg      Total
 --------------------------------------------------------------------
    O  1    0.01464      0.99992     2.97632    0.00911     3.98536
    N  2    0.47071      0.99983     2.00539    0.02406     3.02929
    O  3    0.01464      0.99992     2.97632    0.00911     3.98536
 ====================================================================
 * Total *  0.50000      2.99966     7.95804    0.04229    11.00000

                     1                      2                      3
                    A1                     A1                     B2
 Frequencies --   749.1627              1404.3035              1720.5130
 Red. masses --    15.1678                15.3149                14.6240
 Frc consts  --     5.0156                17.7945                25.5054
 IR Inten    --     7.8627                 0.4292               323.4005

 - Thermochemistry -
 -------------------
 Temperature   298.150 Kelvin.  Pressure   1.00000 Atm.
 Atom  1 has atomic number  8 and mass  15.99491

 Molecular mass:    45.99290 amu.
 Principal axes and moments of inertia in atomic units:
                           1         2         3
     EIGENVALUES --     7.74705 139.91886 147.66591
           X            0.00000   0.00000   1.00000
           Y            1.00000   0.00000   0.00000
           Z            0.00000   1.00000   0.00000
 This molecule is an asymmetric top.
 Rotational symmetry number  2.
 Rotational temperatures (Kelvin)     11.18023     0.61903     0.58655
 Rotational constants (GHZ):         232.95855    12.89848    12.22179
 Zero-point vibrational energy      23171.5 (Joules/Mol)
                                    5.53813 (Kcal/Mol)
 Vibrational temperatures:   1077.88  2020.48  2475.43
          (Kelvin)

 Zero-point correction=                           0.008826 (Hartree/Particle)
 Thermal correction to Energy=                    0.011762
 Thermal correction to Enthalpy=                  0.012706
 Thermal correction to Gibbs Free Energy=        -0.014561
 Sum of electronic and zero-point Energies=           -205.063381
 Sum of electronic and thermal Energies=              -205.060444
 Sum of electronic and thermal Enthalpies=            -205.059500
 Sum of electronic and thermal Free Energies=         -205.086767

                     E (Thermal)             CV                S
                      KCal/Mol        Cal/Mol-Kelvin    Cal/Mol-Kelvin
 Total                    7.381              6.838             57.388
 Electronic               0.000              0.000              1.377
 Translational            0.889              2.981             37.403
 Rotational               0.889              2.981             18.332
 Vibrational              5.603              0.876              0.275

 Optimization completed.
    -- Stationary point found.
 Normal termination of Gaussian 03 at Tue Sep  9 16:47:46 2008.
