 Gaussian 03, Revision B.05,
 Gaussian 03:  x86-Linux-G03RevB.05  8-Nov-2003

 --------------------------------------------------------------------
 # b3lyp/6-31g* pop=(full,nboread) gfprint freq guess=read geom=check
 --------------------------------------------------------------------

 --------------------------
 No Z-matrix found on checkpoint file.
 Cartesian coordinates read from the checkpoint file:
 ../CHK/sf6.chk
 Charge =  0 Multiplicity = 1

                         Standard orientation:
 ---------------------------------------------------------------------
 Center     Atomic     Atomic              Coordinates (Angstroms)
 Number     Number      Type              X           Y           Z
 ---------------------------------------------------------------------
    1          9             0        0.000000    0.000000    1.599751
    2         16             0        0.000000    0.000000    0.000000
    3          9             0        0.000000    1.599751    0.000000
    4          9             0        0.000000    0.000000   -1.599751
    5          9             0        1.599751    0.000000    0.000000
    6          9             0       -1.599751    0.000000    0.000000
    7          9             0        0.000000   -1.599751    0.000000
 ---------------------------------------------------------------------

 SCF Done:  E(RB+HF-LYP) =  -997.106743558     A.U. after    1 cycles

 The electronic state is 1-A1G.
 Alpha  occ. eigenvalues --  -89.34514 -24.76762 -24.76762 -24.76762 -24.76762
 Alpha  occ. eigenvalues --  -24.76762 -24.76762  -8.33808  -6.30502  -6.30502
 Alpha  occ. eigenvalues --   -6.30502  -1.39029  -1.27480  -1.27480  -1.27480
 Alpha  occ. eigenvalues --   -1.22860  -1.22860  -0.82135  -0.66204  -0.66204
 Alpha  occ. eigenvalues --   -0.66204  -0.54807  -0.54807  -0.54807  -0.52122
 Alpha  occ. eigenvalues --   -0.52122  -0.46874  -0.46874  -0.46874  -0.46455
 Alpha  occ. eigenvalues --   -0.46455  -0.46455  -0.42739  -0.42739  -0.42739
 Alpha virt. eigenvalues --   -0.08826   0.09460   0.09460   0.09460   0.27825
 Alpha virt. eigenvalues --    0.32619   0.32619   0.32619   0.48246   0.48246
 Alpha virt. eigenvalues --    0.48246   0.87401   0.87401   1.05628   1.05628

 Mulliken atomic charges:
              1
     1  F   -0.272313
     2  S    1.633878
     3  F   -0.272313
     4  F   -0.272313
     5  F   -0.272313
     6  F   -0.272313
     7  F   -0.272313
 Sum of Mulliken charges=   0.00000

 Dipole moment (field-independent basis, Debye):
    X=     0.0000    Y=     0.0000    Z=     0.0000  Tot=     0.0000
 Quadrupole moment (field-independent basis, Debye-Ang):
   XX=   -41.9320   YY=   -41.9320   ZZ=   -41.9320
   XY=     0.0000   XZ=     0.0000   YZ=     0.0000

  Exact polarizability:  24.107   0.000  24.107   0.000   0.000  24.107
 Approx polarizability:  34.972   0.000  34.972   0.000   0.000  34.972

 Summary of Natural Population Analysis:

                                     Natural Population
             Natural    ---------------------------------------------
  Atom No    Charge        Core      Valence    Rydberg      Total
 --------------------------------------------------------------------
    F  1   -0.46890      1.99997     7.45776    0.01117     9.46890
    S  2    2.81337      9.99990     2.98102    0.20572    13.18663
    F  3   -0.46890      1.99997     7.45776    0.01117     9.46890
    F  4   -0.46890      1.99997     7.45776    0.01117     9.46890
    F  5   -0.46890      1.99997     7.45776    0.01117     9.46890
    F  6   -0.46890      1.99997     7.45776    0.01117     9.46890
    F  7   -0.46890      1.99997     7.45776    0.01117     9.46890
 ====================================================================
 * Total *  0.00000     21.99970    47.72757    0.27273    70.00000

                     1                      2                      3
                    T2U                    T2U                    T2U
 Frequencies --   315.3117               315.3117               315.3117
 Red. masses --    18.9984                18.9984                18.9984
 Frc consts  --     1.1129                 1.1129                 1.1129
 IR Inten    --     0.0000                 0.0000                 0.0000

                     4                      5                      6
                    T2G                    T2G                    T2G
 Frequencies --   473.6883               473.6883               473.6883
 Red. masses --    18.9984                18.9984                18.9984
 Frc consts  --     2.5116                 2.5116                 2.5116
 IR Inten    --     0.0000                 0.0000                 0.0000

                     7                      8                      9
                    T1U                    T1U                    T1U
 Frequencies --   557.7031               557.7031               557.7031
 Red. masses --    20.1679                20.1679                20.1679
 Frc consts  --     3.6959                 3.6959                 3.6959
 IR Inten    --    25.4316                25.4316                25.4316

                    10                     11                     12
                    EG                     EG                     A1G
 Frequencies --   648.2291               648.2291               731.0109
 Red. masses --    18.9984                18.9984                18.9984
 Frc consts  --     4.7035                 4.7035                 5.9816
 IR Inten    --     0.0000                 0.0000                 0.0000

                    13                     14                     15
                    T1U                    T1U                    T1U
 Frequencies --   965.0258               965.0258               965.0258
 Red. masses --    25.6358                25.6358                25.6358
 Frc consts  --    14.0661                14.0661                14.0661
 IR Inten    --   364.7756               364.7756               364.7756

 - Thermochemistry -
 -------------------
 Temperature   298.150 Kelvin.  Pressure   1.00000 Atm.
 Atom  1 has atomic number  9 and mass  18.99840

 Molecular mass:   145.96249 amu.
 Principal axes and moments of inertia in atomic units:
                           1         2         3
     EIGENVALUES --   694.51142 694.51142 694.51142
           X            0.44721   0.89443   0.00000
           Y            0.89443  -0.44721   0.00000
           Z            0.00000   0.00000   1.00000
 This molecule is a spherical top.
 Rotational symmetry number 24.
 Warning -- assumption of classical behavior for rotation
           may cause significant error
 Rotational temperatures (Kelvin)      0.12471     0.12471     0.12471
 Rotational constants (GHZ):           2.59858     2.59858     2.59858
 Zero-point vibrational energy      53608.6 (Joules/Mol)
                                   12.81276 (Kcal/Mol)
 Warning -- explicit consideration of   9 degrees of freedom as
           vibrations may cause significant error
 Vibrational temperatures:    453.66   453.66   453.66   681.53   681.53
          (Kelvin)            681.53   802.41   802.41   802.41   932.66
                              932.66  1051.76  1388.46  1388.46  1388.46

 Zero-point correction=                           0.020418 (Hartree/Particle)
 Thermal correction to Energy=                    0.026240
 Thermal correction to Enthalpy=                  0.027184
 Thermal correction to Gibbs Free Energy=        -0.006526
 Sum of electronic and zero-point Energies=           -997.086325
 Sum of electronic and thermal Energies=              -997.080503
 Sum of electronic and thermal Enthalpies=            -997.079559
 Sum of electronic and thermal Free Energies=         -997.113269

                     E (Thermal)             CV                S
                      KCal/Mol        Cal/Mol-Kelvin    Cal/Mol-Kelvin
 Total                   16.466             22.074             70.949
 Electronic               0.000              0.000              0.000
 Translational            0.889              2.981             40.845
 Rotational               0.889              2.981             20.992
 Vibrational             14.689             16.112              9.112
 Vibration  1             0.703              1.644              1.334
 Vibration  2             0.703              1.644              1.334
 Vibration  3             0.703              1.644              1.334
 Vibration  4             0.830              1.308              0.727
 Vibration  5             0.830              1.308              0.727
 Vibration  6             0.830              1.308              0.727
 Vibration  7             0.913              1.123              0.528
 Vibration  8             0.913              1.123              0.528
 Vibration  9             0.913              1.123              0.528

 Optimization completed.
    -- Stationary point found.
 Normal termination of Gaussian 03 at Fri Oct  3 19:12:28 2008.
